<?xml version="1.0"?>
<VTKFile type="UnstructuredGrid">
  <UnstructuredGrid>
    <Piece NumberOfPoints="1599" NumberOfCells="3064">
      <PointData Scalars="pressure_head">
        <DataArray Name="pressure_head" type="Float32" format="ascii">
          -7.12646 -7.23606 -7.13539 -7.29687 -7.12537 -7.27031 -7.23069 -7.31682 -7.32452 -7.32741 -7.12871 -7.30504 -7.27912 -7.24779 -7.32739 -7.33489 -7.33464 -7.3359 -7.12912 -7.22924 -7.3125 -7.29503 -7.33258 -7.33864 -7.33962 -7.3388 -7.33764 -7.3391 -7.13618 -7.27426 -7.30886 -7.32715 -7.3371 -7.33969 -7.33991 -7.33975 -7.33931 -7.33979 -7.23043 -7.13177 -7.29617 -7.32569 -7.33599 -7.33919 -7.13369 -7.33995 -7.33998 -7.33995 -7.33994 -7.34 -7.33989 -7.26647 -7.31919 -7.33563 -7.339 -7.33979 -7.33996 -7.13 -7.2491 -7.22484 -7.33998 -7.33999 -7.33999 -7.33999 -7.34 -7.34 -7.33999 -7.33999 -7.31388 -7.33106 -7.33766 -7.33893 -7.33973 -7.33995 -7.32134 -7.13092 -7.29779 -7.24987 -7.34 -7.34 -7.34 -7.34 -7.34 -7.34 -7.34 -7.34 -7.33999 -7.34 -7.33383 -7.33865 -7.33966 -7.33994 -7.32874 -7.146 -7.31258 -7.27567 -7.34 -7.34 -7.34 -7.34 -7.34 -7.34 -7.34 -7.34 -7.34 -7.33999 -7.34 -7.33808 -7.33967 -7.33995 -7.14525 -7.33357 -7.28173 -7.32179 -7.34 -7.34 -7.34 -7.34 -7.34 -7.34 -7.34 -7.34 -7.34 -7.34 -7.34 -7.34 -7.3385 -7.33961 -7.3399 -7.33998 -7.14707 -7.2866 -7.33716 -7.32771 -7.14722 -7.14242 -7.34 -7.34 -7.34 -7.34 -7.34 -7.34 -7.34 -7.34 -7.34 -7.34 -7.34 -7.34 -7.3396 -7.33992 -7.33999 -7.29091 -7.32973 -7.33956 -7.33763 -7.29105 -7.2729 -7.14875 -7.34 -7.34 -7.34 -7.34 -7.34 -7.34 -7.34 -7.34 -7.34 -7.34 -7.34 -7.34 -7.34 -7.34 -7.33995 -7.34 -7.3303 -7.33991 -7.33813 -7.33964 -7.32953 -7.3032 -7.15133 -7.13921 -7.34 -7.34 -7.34 -7.34 -7.34 -7.34 -7.34 -7.34 -7.34 -7.34 -7.34 -7.34 -7.34 -7.34 -7.34 -7.34 -7.33999 -7.33809 -7.33997 -7.33973 -7.33862 -7.33501 -7.3271 -7.28253 -7.26226 -7.14516 -7.15106 -7.14561 -7.34 -7.34 -7.34 -7.34 -7.34 -7.34 -7.34 -7.34 -7.34 -7.34 -7.34 -7.34 -7.34 -7.34 -7.34 -7.34 -7.34 -7.33975 -7.34 -7.33996 -7.33929 -7.33982 -7.33776 -7.33573 -7.32366 -7.29676 -7.33763 -7.15291 -7.28673 -7.28689 -7.15345 -7.14531 -7.34 -7.34 -7.34 -7.34 -7.34 -7.34 -7.34 -7.34 -7.34 -7.34 -7.34 -7.34 -7.34 -7.34 -7.34 -7.34 -7.34 -7.34 -7.33966 -7.34 -7.33997 -7.33999 -7.33991 -7.33998 -7.33937 -7.33965 -7.33366 -7.32649 -7.33906 -7.3398 -7.30498 -7.32917 -7.32742 -7.29336 -7.12938 -7.28735 -7.17874 -7.15869 -7.18956 -7.18488 -7.19708 -7.22003 -7.34 -7.34 -7.34 -7.34 -7.34 -7.34 -7.34 -7.34 -7.34 -7.34 -7.34 -7.34 -7.34 -7.34 -7.34 -7.34 -7.34 -7.34 -7.34 -7.34 -7.33987 -7.33996 -7.34 -7.34 -7.33999 -7.34 -7.33992 -7.33995 -7.33995 -7.33175 -7.33826 -7.33976 -7.33627 -7.33786 -7.33029 -7.33863 -7.17879 -7.1725 -7.30975 -7.3109 -7.28528 -7.32477 -7.31271 -7.31463 -7.32981 -7.32842 -7.3263 -7.34 -7.34 -7.34 -7.34 -7.34 -7.34 -7.34 -7.34 -7.34 -7.34 -7.34 -7.34 -7.34 -7.34 -7.34 -7.34 -7.34 -7.34 -7.34 -7.34 -7.34 -7.33998 -7.33999 -7.34 -7.34 -7.33999 -7.33999 -7.33999 -7.33996 -7.33954 -7.33979 -7.33964 -7.33822 -7.33991 -7.33984 -7.32624 -7.33737 -7.33555 -7.33625 -7.33663 -7.33959 -7.33978 -7.33914 -7.33892 -7.34 -7.34 -7.34 -7.34 -7.34 -7.34 -7.34 -7.34 -7.34 -7.34 -7.34 -7.34 -7.34 -7.34 -7.34 -7.34 -7.34 -7.34 -7.34 -7.34 -7.34 -7.34 -7.34 -7.34 -7.34 -7.34 -7.34 -7.34 -7.34 -7.34 -7.33999 -7.33997 -7.33995 -7.33996 -7.33999 -7.33974 -7.33999 -7.33997 -7.3395 -7.33967 -7.33967 -7.33997 -7.33996 -7.33999 -7.34 -7.33995 -7.34 -7.33991 -7.33999 -7.34 -7.34 -7.33574 -7.34 -7.34 -7.34 -7.33999 -7.33996 -7.34 -7.34 -7.34 -7.34 -7.34 -7.34 -7.34 -7.34 -7.33997 -7.33997 -7.34 -7.34 -7.34 -7.34 -7.34 -7.34 -7.34 -7.34 -7.34 -7.34 -7.34 -7.34 -7.34 -7.34 -7.34 -7.34 -7.33998 -7.34 -7.33998 -7.33997 -7.34 -7.34 -7.34 -7.34 -7.34 -7.34 -7.34 -7.34 -7.34 -7.20879 -7.33916 -7.33991 -7.33998 -7.33999 -7.32726 -7.33997 -7.33997 -7.33989 -7.33989 -7.3396 -7.3395 -7.33975 -7.3371 -7.34 -7.34 -7.34 -7.34 -7.34 -7.33998 -7.33998 -7.33976 -7.33981 -7.34 -7.33999 -7.34 -7.34 -7.34 -7.34 -7.34 -7.34 -7.34 -7.34 -7.34 -7.34 -7.34 -7.34 -7.34 -7.34 -7.34 -7.34 -7.34 -7.34 -7.34 -7.34 -7.34 -7.34 -7.34 -7.34 -7.34 -7.34 -7.34 -7.33999 -7.12262 -5.58335 -7.33884 -7.33974 -7.28592 -7.33953 -7.33795 -7.33756 -7.33523 -7.32942 -7.33578 -7.30485 -7.33998 -7.33998 -7.33999 -7.33995 -7.33983 -7.3398 -7.33786 -7.31289 -7.33819 -7.33997 -7.33997 -7.33983 -7.34 -7.34 -7.34 -7.34 -7.34 -7.34 -7.34 -7.34 -7.34 -7.34 -7.34 -7.34 -7.34 -7.34 -7.34 -7.34 -7.34 -7.34 -7.34 -7.34 -7.34 -7.34 -7.34 -7.34 -7.33997 -6.03701 -3.89381 -3.13877 -7.32832 -7.29953 -7.0056 -7.32691 -7.28424 -7.29424 -7.27074 -7.17804 -7.22926 -6.8209 -7.33959 -7.33979 -7.33916 -6.97389 -7.33548 -7.30387 -7.33985 -7.33987 -7.33763 -7.33881 -7.34 -7.34 -7.34 -7.34 -7.34 -7.34 -7.34 -7.34 -7.34 -7.34 -7.34 -7.34 -7.34 -7.34 -7.34 -7.34 -7.34 -7.34 -7.34 -7.34 -7.34 -7.34 -7.33998 -7.33999 -7.33987 -5.27514 -3.67728 -2.46369 -2.06877 -1.54469 -6.8909 -5.60878 -6.84686 -7.08817 -6.72385 -6.11853 -5.95577 -6.06468 -4.96485 -7.32743 -7.33244 -5.06612 -6.48449 -7.17185 -7.1622 -7.33924 -7.33942 -7.2755 -7.31883 -7.33235 -7.34 -7.34 -7.34 -7.34 -7.34 -7.34 -7.34 -7.34 -7.34 -7.34 -7.34 -7.34 -7.34 -7.34 -7.34 -7.34 -7.34 -7.34 -7.34 -7.34 -7.33997 -7.33805 -7.33988 -7.33935 -3.67518 -2.41578 -2.00124 -1.6608 -1.35603 -1.2552 -4.03859 -5.12815 -5.37997 -4.9886 -3.85792 -2.84899 -3.92995 -3.97939 -3.42023 -3.21952 -7.11252 -4.03146 -5.21647 -6.24992 -7.33576 -6.14221 -7.30593 -6.86523 -7.1692 -7.33999 -7.34 -7.34 -7.34 -7.34 -7.34 -7.34 -7.34 -7.34 -7.34 -7.34 -7.34 -7.34 -7.34 -7.34 -7.34 -7.34 -7.34 -7.34 -7.34 -7.33993 -7.33974 -7.33954 -7.32776 -7.33632 -7.33896 -2.65718 -2.03164 -1.67499 -1.08564 -0.976501 -1.34135 -1.14877 -2.37178 -3.48482 -3.46215 -2.59498 -2.07209 -2.51701 -2.64634 -2.225 -2.67372 -4.95862 -3.14984 -3.85245 -7.28834 -7.18574 -3.62353 -4.54464 -6.98244 -5.42197 -5.96743 -7.34 -7.33999 -7.34 -7.34 -7.34 -7.34 -7.34 -7.34 -7.34 -7.34 -7.34 -7.34 -7.34 -7.34 -7.34 -7.34 -7.34 -7.34 -7.34002 -7.3403 -7.34001 -7.34327 -7.33987 -7.33816 -7.33852 -7.30417 -7.33056 -1.88862 -1.59961 -1.36086 -0.901017 -0.847684 -1.01209 -0.938749 -1.17136 -1.05013 -1.74287 -2.28604 -1.59126 -1.86805 -1.77782 -1.84848 -2.01926 -1.70423 -2.18369 -2.96368 -2.4737 -6.84566 -2.36905 -6.52739 -6.08438 -2.78276 -3.36112 -5.09209 -4.01857 -7.34 -7.33999 -7.34 -7.34 -7.34 -7.34 -7.34 -7.34 -7.34 -7.34 -7.34 -7.34 -7.34001 -7.34 -7.34 -7.34007 -7.34027 -7.34013 -7.34304 -7.36545 -7.40172 -7.36121 -7.40166 -7.33993 -7.33952 -7.33754 -7.32812 -7.32911 -7.18352 -1.47342 -1.32378 -1.18786 -0.882437 -0.807963 -0.831939 -0.957834 -1.05668 -0.904494 -1.43707 -1.43307 -1.62452 -1.48011 -1.44004 -1.4267 -1.6838 -1.39946 -1.82124 -2.05486 -1.78003 -5.81434 -4.86907 -1.99926 -4.21211 -2.29517 -2.68662 -3.19437 -7.33999 -7.34 -7.34 -7.34 -7.34 -7.34 -7.34 -7.34 -7.34 -7.34 -7.34 -7.34001 -7.34 -7.34021 -7.36205 -7.34063 -7.34278 -7.3713 -7.42649 -7.36071 -7.43011 -7.3399 -7.33933 -7.33767 -7.32386 -7.18492 -5.88225 -7.1748 -1.30907 -1.15029 -0.856741 -0.801208 -0.777788 -0.816911 -0.956439 -1.0187 -0.887505 -0.766054 -0.754984 -0.737808 -1.33939 -1.33985 -1.23889 -1.20389 -1.20401 -1.22266 -1.42468 -1.5891 -1.25495 -1.49633 -1.60705 -3.68362 -3.06825 -1.73694 -2.59013 -2.00236 -2.258 -7.33998 -7.34 -7.34 -7.34 -7.34 -7.34 -7.34 -7.34 -7.34 -7.34 -7.34001 -7.34007 -7.34012 -7.34184 -7.34082 -7.36128 -7.34634 -7.37158 -7.35132 -7.42323 -7.3622 -7.42971 -7.33978 -7.33859 -7.32947 -7.28685 -3.81846 -5.48624 -6.82998 -1.20601 -1.09151 -0.842577 -0.782421 -0.807917 -0.937504 -0.998855 -0.875952 -0.724115 -0.753804 -0.736029 -1.25194 -1.27907 -1.28691 -1.26525 -1.26421 -1.28612 -1.31568 -1.31876 -2.56654 -1.30631 -1.36552 -1.44145 -1.53122 -2.32233 -2.10919 -1.64167 -1.92703 -1.77178 -0.711193 -0.714003 -7.33998 -7.34 -7.34 -7.34 -7.34 -7.34 -7.34001 -7.34002 -7.34003 -7.34015 -7.34081 -7.34605 -7.36122 -7.37505 -7.37869 -7.41289 -7.40166 -7.33985 -7.33917 -7.33224 -7.24173 -2.90109 -6.40149 -4.96704 -1.15412 -1.07232 -0.830415 -0.779447 -0.799989 -0.760008 -0.925047 -1.00226 -0.867313 -0.718091 -0.728084 -0.743036 -1.29555 -1.24093 -1.30555 -1.3104 -2.63983 -1.34742 -1.35696 -1.38915 -1.39347 -2.45502 -1.42307 -1.46535 -1.62601 -1.55534 -2.24685 -2.06455 -1.75073 -1.90104 -0.713362 -0.707266 -0.706016 -0.696713 -0.690681 -0.685834 -7.33999 -7.34 -7.33998 -7.34 -7.34 -7.34 -7.34003 -7.34011 -7.34053 -7.34025 -7.34188 -7.36363 -7.34755 -7.37408 -7.36198 -7.43569 -7.35236 -7.43027 -7.33988 -7.33935 -7.33702 -7.31108 -2.73191 -6.97071 -4.44156 -1.1828 -1.11962 -1.01308 -0.815737 -0.781518 -0.757569 -0.922608 -0.856244 -0.72484 -0.74128 -0.716745 -1.32232 -1.31521 -1.35332 -2.5804 -1.38489 -1.42744 -1.46116 -2.39908 -1.53042 -1.66468 -1.61151 -1.77857 -2.19927 -2.02598 -1.89179 -0.70861 -0.699732 -0.693001 -0.689425 -0.688434 -0.73987 -0.767221 -7.34 -7.33998 -7.34 -7.34003 -7.34019 -7.34132 -7.34107 -7.34213 -7.34908 -7.36143 -7.37663 -7.36229 -7.41989 -7.37726 -7.42572 -7.33959 -7.32587 -7.05122 -2.67631 -3.46076 -5.39233 -1.31272 -1.30042 -1.09932 -0.974756 -1.28046 -0.819298 -0.78511 -0.760297 -0.884677 -0.825818 -0.729563 -0.746898 -0.711629 -0.72125 -1.34309 -1.38449 -2.53134 -1.42477 -1.4208 -1.49032 -1.47593 -1.5421 -2.34924 -1.62657 -1.73604 -1.88176 -2.16776 -2.01426 -0.700831 -0.694905 -0.691224 -0.702197 -0.687616 -0.719007 -0.749617 -0.767748 -7.33998 -7.34001 -7.34001 -7.34003 -7.34025 -7.34103 -7.34369 -7.3485 -7.34838 -7.37622 -7.36103 -7.36227 -7.42252 -7.36264 -7.4245 -7.33982 -7.33643 -6.10589 -7.25438 -2.6734 -3.84026 -1.33726 -1.32157 -1.30804 -1.00942 -1.24407 -0.780849 -0.872198 -0.809307 -0.734876 -0.753652 -0.715746 -0.725936 -0.705168 -1.38436 -1.43959 -2.50745 -1.47551 -1.54527 -1.52779 -1.6121 -2.29818 -1.70974 -1.77496 -1.86668 -2.00878 -2.13748 -0.695336 -0.690728 -0.697452 -0.687869 -0.721857 -0.747719 -0.768128 -0.759832 -7.34004 -7.34006 -7.3402 -7.34103 -7.34277 -7.35184 -7.37584 -7.37633 -7.36274 -7.36148 -7.42177 -7.42822 -7.42001 -7.33929 -4.98318 -7.30411 -6.71649 -2.6835 -3.54536 -1.36903 -1.35777 -1.34247 -0.952617 -1.04504 -0.776713 -0.826062 -0.698972 -0.743579 -0.721594 -0.709338 -1.4334 -1.48816 -2.57512 -2.40305 -1.5493 -1.59535 -1.67721 -2.24454 -2.34195 -1.7925 -1.92931 -2.08489 -0.691901 -0.688259 -0.72523 -0.694294 -0.75168 -0.768662 -7.34018 -7.34043 -7.34183 -7.34508 -7.35362 -7.35747 -7.37746 -7.36217 -7.36267 -7.42173 -7.36143 -7.44819 -7.33789 -7.31723 -7.33934 -5.01652 -6.83781 -2.70831 -3.57213 -2.6544 -1.41655 -1.07397 -1.39939 -0.886436 -0.94103 -0.77664 -0.813597 -0.920644 -0.702222 -0.711695 -0.744579 -0.728566 -1.48345 -1.52796 -1.59266 -2.50155 -1.64014 -1.71126 -2.36976 -2.22928 -1.78961 -1.8789 -1.98679 -2.10035 -0.697976 -0.689447 -0.720425 -0.747777 -0.690857 -0.759343 -0.768888 -7.34094 -7.33696 -7.34528 -7.35588 -7.37883 -7.37784 -7.36319 -7.42358 -7.4253 -7.3613 -7.42077 -7.2857 -7.31407 -4.53147 -6.35231 -7.27211 -2.77106 -2.65949 -1.45122 -1.05818 -0.840893 -0.771918 -0.88823 -0.840512 -0.705925 -0.719749 -0.738828 -1.50448 -1.56073 -1.65571 -1.62604 -2.5065 -2.67779 -1.72487 -2.31364 -2.17295 -1.80729 -1.90369 -2.04031 -0.699532 -0.720428 -0.743342 -0.693614 -0.717062 -0.759734 -0.770018 -7.33799 -7.14455 -7.35335 -7.37784 -7.3608 -7.36271 -7.4243 -7.36059 -7.36289 -7.42456 -6.91692 -4.10226 -5.35758 -6.3719 -6.01034 -2.87976 -2.59459 -1.10626 -0.955935 -0.874834 -0.790421 -0.75095 -0.811883 -0.711529 -0.730984 -1.13597 -1.19613 -1.69756 -1.27995 -2.28087 -2.46889 -1.775 -2.28039 -2.11909 -1.86896 -1.98258 -0.703591 -0.697757 -0.743127 -0.72477 -0.761286 -0.770958 -6.69353 -7.29239 -7.35056 -7.3485 -7.36977 -7.38126 -7.42842 -7.36079 -7.41215 -4.83836 -3.75134 -4.46489 -4.64691 -2.82832 -2.33284 -0.941991 -0.833938 -0.762788 -0.779739 -0.721009 -0.738393 -1.00724 -1.06445 -1.9753 -1.3221 -1.12775 -1.89681 -1.35797 -1.71113 -1.56547 -1.4499 -0.711228 -0.7027 -0.729533 -0.748706 -0.763671 -0.772029 -5.20191 -6.96042 -7.11678 -7.27364 -7.36784 -7.4311 -7.3625 -7.42555 -3.13753 -3.27235 -3.52623 -2.25186 -0.890851 -0.835495 -0.794952 -0.750468 -0.730478 -0.942019 -0.996215 -1.78437 -1.68032 -1.09725 -1.51281 -1.16888 -1.37 -1.25797 -0.718219 -0.709105 -0.734487 -0.752003 -0.766327 -0.773522 -4.1142 -5.33911 -6.34813 -6.42527 -7.20587 -7.35629 -7.42407 -2.44805 -2.58259 -2.86475 -1.91829 -1.65334 -0.865592 -0.81667 -0.769462 -0.738827 -0.906234 -0.953788 -1.49083 -1.01748 -1.29391 -1.0881 -1.17802 -0.732581 -0.717826 -0.740872 -0.756255 -0.769815 -0.775416 -3.42104 -4.00551 -4.29568 -5.50206 -6.95249 -7.39804 -2.04101 -2.11622 -2.32906 -1.69895 -1.47254 -0.845817 -0.791029 -0.754899 -0.883666 -0.932831 -1.30246 -0.991483 -1.16954 -1.06873 -0.749395 -0.730254 -0.74981 -0.762187 -0.774735 -0.778 -2.6473 -2.91748 -3.39761 -4.39064 -6.11966 -1.98102 -1.69136 -1.78545 -1.39666 -0.819913 -0.778978 -0.847303 -0.888708 -1.19547 -1.11147 -0.951031 -1.03529 -0.772808 -0.748104 -0.762735 -0.770679 -0.781887 -0.781666 -2.19703 -2.41753 -2.87435 -3.62609 -1.78419 -1.5959 -1.4373 -1.23732 -0.817822 -0.796188 -0.875866 -1.06838 -0.951309 -0.774286 -0.781918 -0.783284 -0.792338 -0.787066 -1.90627 -2.14703 -2.52532 -1.63923 -1.5117 -1.31734 -1.13076 -1.04902 -0.827406 -0.890775 -0.97479 -0.812635 -0.812141 -0.803158 -0.805786 -0.795492 -1.68564 -1.99458 -1.43659 -1.31522 -1.16226 -1.03551 -0.864335 -0.937699 -0.856359 -0.831295 -0.810686 -1.43519 -1.67944 -1.24292 -1.10551 -1.00183 -0.915763 -0.890076 -0.844332 -1.29338 -1.46156 -1.123 -0.986139 -0.944862 -1.28193 -1.11778 
        </DataArray>
      </PointData>
      <CellData Scalars="dom">
        <DataArray Name="dom" type="Int32" format="ascii">
0 0 0 0 0 0 0 0 0 0 0 0 0 0 0 0 0 0 0 0 0 0 0 0 0 0 0 0 0 0 0 0 0 0 0 0 0 0 0 0 0 0 0 0 0 0 0 0 0 0 0 0 0 0 0 0 0 0 0 0 0 0 0 0 0 0 0 0 0 0 0 0 0 0 0 0 0 0 0 0 0 0 0 0 0 0 0 0 0 0 0 0 0 0 0 0 0 0 0 0 0 0 0 0 0 0 0 0 0 0 0 0 0 0 0 0 0 0 0 0 0 0 0 0 0 0 0 0 0 0 0 0 0 0 0 0 0 0 0 0 0 0 0 0 0 0 0 0 0 0 0 0 0 0 0 0 0 0 0 0 0 0 0 0 0 0 0 0 0 0 0 0 0 0 0 0 0 0 0 0 0 0 0 0 0 0 0 0 0 0 0 0 0 0 0 0 0 0 0 0 0 0 0 0 0 0 0 0 0 0 0 0 0 0 0 0 0 0 0 0 0 0 0 0 0 0 0 0 0 0 0 0 0 0 0 0 0 0 0 0 0 0 0 0 0 0 0 0 0 0 0 0 0 0 0 0 0 0 0 0 0 0 0 0 0 0 0 0 0 0 0 0 0 0 0 0 0 0 0 0 0 0 0 0 0 0 0 0 0 0 0 0 0 0 0 0 0 0 0 0 0 0 0 0 0 0 0 0 0 0 0 0 0 0 0 0 0 0 0 0 0 0 0 0 0 0 0 0 0 0 0 0 0 0 0 0 0 0 0 0 0 0 0 0 0 0 0 0 0 0 0 0 0 0 0 0 0 0 0 0 0 0 0 0 0 0 0 0 0 0 0 0 0 0 0 0 0 0 0 0 0 0 0 0 0 0 0 0 0 0 0 0 0 0 0 0 0 0 0 0 0 0 0 0 0 0 0 0 0 0 0 0 0 0 0 0 0 0 0 0 0 0 0 0 0 0 0 0 0 0 0 0 0 0 0 0 0 0 0 0 0 0 0 0 0 0 0 0 0 0 0 0 0 0 0 0 0 0 0 0 0 0 0 0 0 0 0 0 0 0 0 0 0 0 0 0 0 0 0 0 0 0 0 0 0 0 0 0 0 0 0 0 0 0 0 0 0 0 0 0 0 0 0 0 0 0 0 0 0 0 0 0 0 0 0 0 0 0 0 0 0 0 0 0 0 0 0 0 0 0 0 0 0 0 0 0 0 0 0 0 0 0 0 0 0 0 0 0 0 0 0 0 0 0 0 0 0 0 0 0 0 0 0 0 0 0 0 0 0 0 0 0 0 0 0 0 0 0 0 0 0 0 0 0 0 0 0 0 0 0 0 0 0 0 0 0 0 0 0 0 0 0 0 0 0 0 0 0 0 0 0 0 0 0 0 0 0 0 0 0 0 0 0 0 0 0 0 0 0 0 0 0 0 0 0 0 0 0 0 0 0 0 0 0 0 0 0 0 0 0 0 0 0 0 0 0 0 0 0 0 0 0 0 0 0 0 0 0 0 0 0 0 0 0 0 0 0 0 0 0 0 0 0 0 0 0 0 0 0 0 0 0 0 0 0 0 0 0 0 0 0 0 0 0 0 0 0 0 0 0 0 0 0 0 0 0 0 0 0 0 0 0 0 0 0 0 0 0 0 0 0 0 0 0 0 0 0 0 0 0 0 0 0 0 0 0 0 0 0 0 0 0 0 0 0 0 0 0 0 0 0 0 0 0 0 0 0 0 0 0 0 0 0 0 0 0 0 0 0 0 0 0 0 0 0 0 0 0 0 0 0 0 0 0 0 0 0 0 0 0 0 0 0 0 0 0 0 0 0 0 0 0 0 0 0 0 0 0 0 0 0 0 0 0 0 0 0 0 0 0 0 0 0 0 0 0 0 0 0 0 0 0 0 0 0 0 0 0 0 0 0 0 0 0 0 0 0 0 0 0 0 0 0 0 0 0 0 0 0 0 0 0 0 0 0 0 0 0 0 0 0 0 0 0 0 0 0 0 0 0 0 0 0 0 0 0 0 0 0 0 0 0 0 0 0 0 0 0 0 0 0 0 0 0 0 0 0 0 0 0 0 0 0 0 0 0 0 0 0 0 0 0 0 0 0 0 0 0 0 0 0 0 0 0 0 0 0 0 0 0 0 0 0 0 0 0 0 0 0 0 0 0 0 0 0 0 0 0 0 0 0 0 0 0 0 0 0 0 0 0 0 0 0 0 0 0 0 0 0 0 0 0 0 0 0 0 0 0 0 0 0 0 0 0 0 0 0 0 0 0 0 0 0 0 0 0 0 0 0 0 0 0 0 0 0 0 0 0 0 0 0 0 0 0 0 0 0 0 0 0 0 0 0 0 0 0 0 0 0 0 0 0 0 0 0 0 0 0 0 0 0 0 0 0 0 0 0 0 0 0 0 0 0 0 0 0 0 0 0 0 0 0 0 0 0 0 0 0 0 0 0 0 0 0 0 0 0 0 0 0 0 0 0 0 0 0 0 0 0 0 0 0 0 0 0 0 0 0 0 0 0 0 0 0 0 0 0 0 0 0 0 0 0 0 0 0 0 0 0 0 0 0 0 0 0 0 0 0 0 0 0 0 0 0 0 0 0 0 0 0 0 0 0 0 0 0 0 0 0 0 0 0 0 0 0 0 0 0 0 0 0 0 0 0 0 0 0 0 0 0 0 0 0 0 0 0 0 0 0 0 0 0 0 0 0 0 0 0 0 0 0 0 0 0 0 0 0 0 0 0 0 0 0 0 0 0 0 0 0 0 0 0 0 0 0 0 0 0 0 0 0 0 0 0 0 0 0 0 0 0 0 0 0 0 0 0 0 0 0 0 0 0 0 0 0 0 0 0 0 0 0 0 0 0 0 0 0 0 0 0 0 0 0 0 0 0 0 0 0 0 0 0 0 0 0 0 0 0 0 0 0 0 0 0 0 0 0 0 0 0 0 0 0 0 0 0 0 0 0 0 0 0 0 0 0 0 0 0 0 0 0 0 0 0 0 0 0 0 0 0 0 0 0 0 0 0 0 0 0 0 0 0 0 0 0 0 0 0 0 0 0 0 0 0 0 0 0 0 0 0 0 0 0 0 0 0 0 0 0 0 0 0 0 0 0 0 0 0 0 0 0 0 0 0 0 0 0 0 0 0 0 0 0 0 0 0 0 0 0 0 0 0 0 0 0 0 0 0 0 0 0 0 0 0 0 0 0 0 0 0 0 0 0 0 0 0 0 0 0 0 0 0 0 0 0 0 0 0 0 0 0 0 0 0 0 0 0 0 0 0 0 0 0 0 0 0 0 0 0 0 0 0 0 0 0 0 0 0 0 0 0 0 0 0 0 0 0 0 0 0 0 0 0 0 0 0 0 0 0 0 0 0 0 0 0 0 0 0 0 0 0 0 0 0 0 0 0 0 0 0 0 0 0 0 0 0 0 0 0 0 0 0 0 0 0 0 0 0 0 0 0 0 0 0 0 0 0 0 0 0 0 0 0 0 0 0 0 0 0 0 0 0 0 0 0 0 0 0 0 0 0 0 0 0 0 0 0 0 0 0 0 0 0 0 0 0 0 0 0 0 0 0 0 0 0 0 0 0 0 0 0 0 0 0 0 0 0 0 0 0 0 0 0 0 0 0 0 0 0 0 0 0 0 0 0 0 0 0 0 0 0 0 0 0 0 0 0 0 0 0 0 0 0 0 0 0 0 0 0 0 0 0 0 0 0 0 0 0 0 0 0 0 0 0 0 0 0 0 0 0 0 0 0 0 0 0 0 0 0 0 0 0 0 0 0 0 0 0 0 0 0 0 0 0 0 0 0 0 0 0 0 0 0 0 0 0 0 0 0 0 0 0 0 0 0 0 0 0 0 0 0 0 0 0 0 0 0 0 0 0 0 0 0 0 0 0 0 0 0 0 0 0 0 0 0 0 0 0 0 0 0 0 0 0 0 0 0 0 0 0 0 0 0 0 0 0 0 0 0 0 0 0 0 0 0 0 0 0 0 0 0 0 0 0 0 0 0 0 0 0 0 0 0 0 0 0 0 0 0 0 0 0 0 0 0 0 0 0 0 0 0 0 0 0 0 0 0 0 0 0 0 0 0 0 0 0 0 0 0 0 0 0 0 0 0 0 0 0 0 0 0 0 0 0 0 0 0 0 0 0 0 0 0 0 0 0 0 0 0 0 0 0 0 0 0 0 0 0 0 0 0 0 0 0 0 0 0 0 0 0 0 0 0 0 0 0 0 0 0 0 0 0 0 0 0 0 0 0 0 0 0 0 0 0 0 0 0 0 0 0 0 0 0 0 0 0 0 0 0 0 0 0 0 0 0 0 0 0 0 0 0 0 0 0 0 0 0 0 0 0 0 0 0 0 0 0 0 0 0 0 0 0 0 0 0 0 0 0 0 0 0 0 0 0 0 0 0 0 0 0 0 0 0 0 0 0 0 0 0 0 0 0 0 0 0 0 0 0 0 0 0 0 0 0 0 0 0 0 0 0 0 0 0 0 0 0 0 0 0 0 0 0 0 0 0 0 0 0 0 0 0 0 0 0 0 0 0 0 0 0 0 0 0 0 0 0 0 0 0 0 0 0 0 0 0 0 0 0 0 0 0 0 0 0 0 0 0 0 0 0 0 0 0 0 0 0 0 0 0 0 0 0 0 0 0 0 0 0 0 0 0 0 0 0 0 0 0 0 0 0 0 0 0 0 0 0 0 0 0 0 0 0 0 0 0 0 0 0 0 0 0 0 0 0 0 0 0 0 0 0 0 0 0 0 0 0 0 0 0 0 0 0 0 0 0 0 0 0 0 0 0 0 0 0 0 0 0 0 0 0 0 0 0 0 0 0 0 0 0 0 0 0 0 0 0 0 0 0 0 0 0 0 0 0 0 0 0 0 0 0 0 0 0 0 0 0 0 0 0 0 0 0 0 0 0 0 0 0 0 0 0 0 0 0 0 0 0 0 0 0 0 0 0 0 0 0 0 0 0 0 0 0 0 0 0 0 0 0 0 0 0 0 0 0 0 0 0 0 0 0 0 0 0 0 0 0 0 0 0 0 0 0 0 0 0 0 0 0 0 0 0 0 0 0 0 0 0 0 0 0 0 0 0 0 0 0 0 0 0 0 0 0 0 0 0 0 0 0 0 0 0 0 0 0 0 0 0 0 0 0 0 0 0 0 0 0 0 0 0 0 0 0 0 0 0 0 0 0 0 0 0 0 0 0 0 0 0 0 0 0 0 0 0 0 0 0 0 0 0 0 0 0 0 0 0 0 0 0 0 0 0 0 0 0 0 0 0 0 0 0 0 0 0 0 0 0 0 0 0 0 0 0 0 0 0 0 0 0 0 0 0 0 0 0 0 0 0 0 0 0 0 0 0 0 0 0 0 0 0 0 0 0 0 0 0 0 0 0 0 0 0 0 0 0 0 0 0 0 0 0 0 0 0 0 0 0 0 0 0 0 0 0 0 0 0 0 0 0 0 0 0 0 0 0 0 0 0 0 0 0 0 0 0 0 0 0 0 0 0 0 0 0 0 0 0 0 0 0 0 0 0 0 0 0 0 0 0 0 0 0 0 0 0 0 0 0 0 0 0 0 0 0 0 0 0 0 0 0 0 0 0 0 0 0 0 0 0 0 0 0 0 0 0 0 0 0 0 0 0 0 0 0 0 0 0 0 0 0 0 0 0 0 0 0 0 0 0 0 0 0 0 0 0 0 0 0 0 0 0 0 0 0 0 0 0 0 0 0 0 0 0 0 0 0 0 0 0 0 0 0 0 0 0 0 0 0 0 0 0 0 0 0 0 0 0 0 0 0 0 0 0 0 0 0 0 0 0 0 0 0 0 0 0 0 0 0 0 0 0 0 0 0 0 0 0 0 0 0 0 0 0 0 0 0 0 0 0 0 0 0 0 0 0 0 0 0 0 0 0 0 0 0 0 0 0 0 0 0 0 0 0 0 0 0 0 0 0 0 0 0 0 0 0 0 0 0 0 0 0 0 0 0 0 0 0 0 0 0 0 0 0 0 0 0 0 0 0 0 0 0 0 0 0 0 0 0 0 0 0 0 0 0 0 0 0 0 0 0 0 0 0 0 0 0 0 0 0 0 0 0 0 0 0 0 0 0 0 0 0 0 0 0 0 0 0 0 0 0 0 0 0 0 0 0 0 0 0 0 0 0 0 0 0 0 0 0 0 0 0 0 0 0 0 0 0 0 0 0 0 0 0 0 0 0 0 0 0 0 0 0 0 0 0 0 0 0 0 0 0 0 0 0 0 0 0 0 0 0 0 0 0 0 0 0 0 0 0 0 0 0 0 0 0 0 0 0 0 0 0 0 0 0 0 0 0 0 0 0 0 0 0 0 0 0 0 0 0 0 0 0 0 0 0 0 0 0 0 0 0 0 0 0 0 0 0 0 0 0 0 0 0 0 0 0 0 0 0 0 0 0 0 0 0 0 0 0 0 0 0 0 0 0 0 0 0 0 0 0 0 0 0 0 0 0 0 0 0 0 0 0 0 0 0 0 0 0 0 0 0 0 0 0 0 0 0 0 0 0 0 0 0 0 0 0 0 0 0 0 0 0 0 0 0 0 0 0 0 0 0 0 0 0 0 0 0 0 0 0 0 0 0 0 0 0 0 0 0 0 0 0 0 0 0 0 0 0 0 0 0 0 0 0 0 0 0 0 0 0 0 0 0 0 0 0 0 0 0 0 0 0 0 0 0 0 0 0 0 0 0 0 0 0 0 0 0 0 0 0 0 0 0 0 0 0 0 0 0 0 0 0 0 0 0 0 0 0 0 0 0 0 0 0 0 0 0 0 0 0 0 0 0 0 0 0 0 0 0 0 0 0 0 0 0 0 0 0 0 0 0 0 0 0 0 0 
        </DataArray>
      </CellData>
      <Points>
        <DataArray NumberOfComponents="3" type="Float32" format="ascii">